 Gaussian 09, Revision E.01,
 Gaussian 09:  ES64L-G09RevE.01 30-Nov-2015

 --------------------------------
 # opt=readopt apfd/6-311+g(2d,p)
 --------------------------------

 ------
 3MAX_P
 ------
 Symbolic Z-matrix:
 Charge =  2 Multiplicity = 1

 SCF Done:  E(RAPFD) =  -2696.34036966     A.U. after   25 cycles
 SCF Done:  E(RAPFD) =  -2696.37003666     A.U. after   14 cycles
 SCF Done:  E(RAPFD) =  -2696.40752635     A.U. after   16 cycles
 SCF Done:  E(RAPFD) =  -2696.43886838     A.U. after   17 cycles
 SCF Done:  E(RAPFD) =  -2696.44430715     A.U. after   15 cycles
 SCF Done:  E(RAPFD) =  -2696.44618615     A.U. after   14 cycles
 SCF Done:  E(RAPFD) =  -2696.44662432     A.U. after   13 cycles
 SCF Done:  E(RAPFD) =  -2696.44664177     A.U. after   12 cycles
 SCF Done:  E(RAPFD) =  -2696.44664688     A.U. after   11 cycles
 Optimization completed.
    -- Stationary point found.

                         Standard orientation:
 ---------------------------------------------------------------------
 Center     Atomic      Atomic             Coordinates (Angstroms)
 Number     Number       Type             X           Y           Z
 ---------------------------------------------------------------------
      1         30           0        2.071356    3.022939    0.414350
      2          7           0        1.003302    1.976527   -1.104060
      3          6           0       -0.244666    1.366000   -0.854262
      4          6           0       -1.420267    2.118247   -0.924696
      5          6           0       -2.647650    1.524333   -0.670047
      6          6           0       -2.740328    0.164173   -0.334428
      7          6           0       -1.552565   -0.589455   -0.233824
      8          6           0       -0.325465    0.010724   -0.492916
      9          7           0        0.847997   -0.760578   -0.466406
     10          6           0        1.905361   -0.421392    0.291084
     11          8           0        1.834373    0.566512    1.001986
     12          6           0        3.099827   -1.294732    0.201056
     13          6           0        3.332779   -1.995490   -0.979515
     14          6           0        4.430374   -2.829247   -1.104770
     15          6           0        5.313884   -2.974821   -0.048146
     16          6           0        5.090390   -2.286070    1.138765
     17          6           0        3.987210   -1.451702    1.278393
     18          6           0       -4.056653   -0.476801   -0.031955
     19          6           0       -4.284325   -1.823940   -0.345815
     20          6           0       -5.504801   -2.412251   -0.020213
     21          6           0       -6.512574   -1.682725    0.614459
     22          6           0       -6.298505   -0.346335    0.939899
     23          6           0       -5.081635    0.249007    0.622273
     24          1           0        0.916989    2.643989   -1.871693
     25          1           0        1.709252    1.289915   -1.371644
     26          1           0       -1.382177    3.169392   -1.196129
     27          1           0       -3.548678    2.118392   -0.768017
     28          1           0       -1.580996   -1.629553    0.068101
     29          1           0        0.788311   -1.715818   -0.794282
     30          1           0        2.679008   -1.872856   -1.838971
     31          1           0        4.602320   -3.356984   -2.036291
     32          1           0        6.175775   -3.626145   -0.143108
     33          1           0        5.772345   -2.407892    1.972961
     34          1           0        3.802624   -0.926673    2.209136
     35          1           0       -3.537431   -2.404995   -0.874782
     36          1           0       -5.681351   -3.448452   -0.286656
     37          1           0       -7.457426   -2.159856    0.851581
     38          1           0       -7.063375    0.228013    1.449448
     39          1           0       -4.912287    1.282487    0.905166
 ---------------------------------------------------------------------

 The electronic state is 1-A.
 Alpha  occ. eigenvalues -- -347.76576 -42.58289 -37.56351 -37.56258 -37.56156
 Alpha  occ. eigenvalues --  -19.40367 -14.72113 -14.65369 -10.55729 -10.53706
 Alpha  occ. eigenvalues --  -10.52485 -10.48857 -10.47686 -10.47055 -10.46868
 Alpha  occ. eigenvalues --  -10.45771 -10.43085 -10.43021 -10.42892 -10.42657
 Alpha  occ. eigenvalues --  -10.41711 -10.41668 -10.41598 -10.41277 -10.40113
 Alpha  occ. eigenvalues --  -10.39939 -10.39833  -5.18505  -3.57014  -3.56805
 Alpha  occ. eigenvalues --   -3.56669  -1.34237  -1.27424  -1.22681  -1.14414
 Alpha  occ. eigenvalues --   -1.10157  -1.09005  -1.04487  -1.04101  -0.98988
 Alpha  occ. eigenvalues --   -0.98422  -0.98009  -0.97029  -0.92241  -0.91835
 Alpha  occ. eigenvalues --   -0.88465  -0.85105  -0.84326  -0.83817  -0.83690
 Alpha  occ. eigenvalues --   -0.83552  -0.83269  -0.83092  -0.82965  -0.82518
 Alpha  occ. eigenvalues --   -0.81899  -0.81679  -0.78605  -0.76803  -0.75073
 Alpha  occ. eigenvalues --   -0.74077  -0.73724  -0.71541  -0.71011  -0.70516
 Alpha  occ. eigenvalues --   -0.70200  -0.68654  -0.68244  -0.67592  -0.66429
 Alpha  occ. eigenvalues --   -0.64998  -0.64596  -0.63752  -0.63636  -0.63378
 Alpha  occ. eigenvalues --   -0.63043  -0.59971  -0.58691  -0.58006  -0.57242
 Alpha  occ. eigenvalues --   -0.57178  -0.56816  -0.55482  -0.53540  -0.53236
 Alpha  occ. eigenvalues --   -0.51622  -0.48074  -0.47503  -0.47093  -0.46797
 Alpha virt. eigenvalues --   -0.43205  -0.29035  -0.28725  -0.27918  -0.26256
 Alpha virt. eigenvalues --   -0.25031  -0.23160  -0.22540  -0.21676  -0.21402
 Alpha virt. eigenvalues --   -0.19430  -0.18701  -0.18130  -0.17004  -0.16373

 Mulliken charges:
               1
     1  Zn   0.702994
     2  N   -0.422998
     3  C    0.509169
     4  C   -0.639930
     5  C   -0.451428
     6  C    1.323866
     7  C   -0.711162
     8  C    0.139391
     9  N   -0.180150
    10  C   -0.128912
    11  O   -0.447377
    12  C    0.800471
    13  C   -0.529011
    14  C   -0.128452
    15  C   -0.088832
    16  C   -0.147259
    17  C   -0.343735
    18  C    1.360530
    19  C   -0.520180
    20  C   -0.133199
    21  C   -0.133779
    22  C   -0.175264
    23  C   -0.683727
    24  H    0.371772
    25  H    0.332745
    26  H    0.158224
    27  H    0.173225
    28  H    0.167365
    29  H    0.330379
    30  H    0.132853
    31  H    0.144612
    32  H    0.155940
    33  H    0.149892
    34  H    0.150470
    35  H    0.139214
    36  H    0.155032
    37  H    0.169060
    38  H    0.157384
    39  H    0.140811
 Sum of Mulliken charges =   2.00000

 Dipole moment (field-independent basis, Debye):
    X=             -0.9841    Y=              5.4196    Z=             -2.6576  Tot=              6.1158
 Quadrupole moment (field-independent basis, Debye-Ang):
   XX=              9.4041   YY=            -61.4699   ZZ=           -123.1507
   XY=             12.4442   XZ=             -6.7053   YZ=             -0.5018

 Normal termination of Gaussian 09 at Thu Jan 13 10:04:42 2022.
