                               Psi4 1.5 release

  ==> Input File <==

--------------------------------------------------------------------------
memory 24 GB

molecule dimer {
2 1
 Zn                 2.07135600    3.02293900    0.41435000
--
0 1
 N                  1.00330200    1.97652700   -1.10406000
 C                 -0.24466600    1.36600000   -0.85426200
 C                 -1.42026700    2.11824700   -0.92469600
 C                 -2.64765000    1.52433300   -0.67004700
 C                 -2.74032800    0.16417300   -0.33442800
 C                 -1.55256500   -0.58945500   -0.23382400
 C                 -0.32546500    0.01072400   -0.49291600
 N                  0.84799700   -0.76057800   -0.46640600
 C                  1.90536100   -0.42139200    0.29108400
 O                  1.83437300    0.56651200    1.00198600
 C                  3.09982700   -1.29473200    0.20105600
 C                  3.33277900   -1.99549000   -0.97951500
 C                  4.43037400   -2.82924700   -1.10477000
 C                  5.31388400   -2.97482100   -0.04814600
 C                  5.09039000   -2.28607000    1.13876500
 C                  3.98721000   -1.45170200    1.27839300
 C                 -4.05665300   -0.47680100   -0.03195500
 C                 -4.28432500   -1.82394000   -0.34581500
 C                 -5.50480100   -2.41225100   -0.02021300
 C                 -6.51257400   -1.68272500    0.61445900
 C                 -6.29850500   -0.34633500    0.93989900
 C                 -5.08163500    0.24900700    0.62227300
 H                  0.91698900    2.64398900   -1.87169300
 H                  1.70925200    1.28991500   -1.37164400
 H                 -1.38217700    3.16939200   -1.19612900
 H                 -3.54867800    2.11839200   -0.76801700
 H                 -1.58099600   -1.62955300    0.06810100
 H                  0.78831100   -1.71581800   -0.79428200
 H                  2.67900800   -1.87285600   -1.83897100
 H                  4.60232000   -3.35698400   -2.03629100
 H                  6.17577500   -3.62614500   -0.14310800
 H                  5.77234500   -2.40789200    1.97296100
 H                  3.80262400   -0.92667300    2.20913600
 H                 -3.53743100   -2.40499500   -0.87478200
 H                 -5.68135100   -3.44845200   -0.28665600
 H                 -7.45742600   -2.15985600    0.85158100
 H                 -7.06337500    0.22801300    1.44944800
 H                 -4.91228700    1.28248700    0.90516600
units angstrom
no_reorient
symmetry c1
}

set {
    scf_type DF
    freeze_core True
    basis aug-cc-pVTZ
}

energy('sapt0')

--------------------------------------------------------------------------

  //              Dimer HF             //
    Molecular point group: c1
  Charge       = 2
  Multiplicity = 1
  Basis Set: AUG-CC-PVTZ
    Blend: AUG-CC-PVTZ
  Basis Set: (AUG-CC-PVTZ AUX)
    Blend: AUG-CC-PVTZ-JKFIT + DEF2-UNIVERSAL-JKFIT
  @DF-RHF Final Energy: -2690.16312324596311
    Total Energy =                      -2690.1631232459631065
  //            Monomer A HF           //
    Molecular point group: c1
  Multiplicity = 1
  Basis Set: AUG-CC-PVTZ
    Blend: AUG-CC-PVTZ
  Basis Set: (AUG-CC-PVTZ AUX)
    Blend: AUG-CC-PVTZ-JKFIT + DEF2-UNIVERSAL-JKFIT
  @DF-RHF Final Energy: -1776.95766012258559
    Total Energy =                      -1776.9576601225853665
  //            Monomer B HF           //
    Molecular point group: c1

    Geometry (in Angstrom), charge = 0, multiplicity = 1:

       Center              X                  Y                   Z               Mass
    ------------   -----------------  -----------------  -----------------  -----------------
      Gh(ZN)          2.023681936533     2.953077332086     0.399255378071    63.929142010000
         N            0.955627936533     1.906665332086    -1.119154621929    14.003074004430
         C           -0.292340063467     1.296138332086    -0.869356621929    12.000000000000
         C           -1.467941063467     2.048385332086    -0.939790621929    12.000000000000
         C           -2.695324063467     1.454471332086    -0.685141621929    12.000000000000
         C           -2.788002063467     0.094311332086    -0.349522621929    12.000000000000
         C           -1.600239063467    -0.659316667914    -0.248918621929    12.000000000000
         C           -0.373139063467    -0.059137667914    -0.508010621929    12.000000000000
         N            0.800322936533    -0.830439667914    -0.481500621929    14.003074004430
         C            1.857686936533    -0.491253667914     0.275989378071    12.000000000000
         O            1.786698936533     0.496650332086     0.986891378071    15.994914619570
         C            3.052152936533    -1.364593667914     0.185961378071    12.000000000000
         C            3.285104936533    -2.065351667914    -0.994609621929    12.000000000000
         C            4.382699936533    -2.899108667914    -1.119864621929    12.000000000000
         C            5.266209936533    -3.044682667914    -0.063240621929    12.000000000000
         C            5.042715936533    -2.355931667914     1.123670378071    12.000000000000
         C            3.939535936533    -1.521563667914     1.263298378071    12.000000000000
         C           -4.104327063467    -0.546662667914    -0.047049621929    12.000000000000
         C           -4.331999063467    -1.893801667914    -0.360909621929    12.000000000000
         C           -5.552475063467    -2.482112667914    -0.035307621929    12.000000000000
         C           -6.560248063467    -1.752586667914     0.599364378071    12.000000000000
         C           -6.346179063467    -0.416196667914     0.924804378071    12.000000000000
         C           -5.129309063467     0.179145332086     0.607178378071    12.000000000000
         H            0.869314936533     2.574127332086    -1.886787621929     1.007825032230
         H            1.661577936533     1.220053332086    -1.386738621929     1.007825032230
         H           -1.429851063467     3.099530332086    -1.211223621929     1.007825032230
         H           -3.596352063467     2.048530332086    -0.783111621929     1.007825032230
         H           -1.628670063467    -1.699414667914     0.053006378071     1.007825032230
         H            0.740636936533    -1.785679667914    -0.809376621929     1.007825032230
         H            2.631333936533    -1.942717667914    -1.854065621929     1.007825032230
         H            4.554645936533    -3.426845667914    -2.051385621929     1.007825032230
         H            6.128100936533    -3.696006667914    -0.158202621929     1.007825032230
         H            5.724670936533    -2.477753667914     1.957866378071     1.007825032230
         H            3.754949936533    -0.996534667914     2.194041378071     1.007825032230
         H           -3.585105063467    -2.474856667914    -0.889876621929     1.007825032230
         H           -5.729025063467    -3.518313667914    -0.301750621929     1.007825032230
         H           -7.505100063467    -2.229717667914     0.836486378071     1.007825032230
         H           -7.111049063467     0.158151332086     1.434353378071     1.007825032230
         H           -4.959961063467     1.212625332086     0.890071378071     1.007825032230

  Charge       = 0
  Multiplicity = 1
  Basis Set: AUG-CC-PVTZ
    Blend: AUG-CC-PVTZ
  Basis Set: (AUG-CC-PVTZ AUX)
    Blend: AUG-CC-PVTZ-JKFIT + DEF2-UNIVERSAL-JKFIT

    Orbital Energies [Eh]
    ---------------------

    Doubly Occupied:

       1A    -20.515735     2A    -15.597442     3A    -15.558152
       4A    -11.349960     5A    -11.275877     6A    -11.272454
       7A    -11.259158     8A    -11.256934     9A    -11.255468
      10A    -11.254422    11A    -11.249999    12A    -11.249662
      13A    -11.247734    14A    -11.240595    15A    -11.239411
      16A    -11.234887    17A    -11.234453    18A    -11.234311
      19A    -11.232479    20A    -11.232271    21A    -11.230895
      22A    -11.228801    23A     -1.392295    24A     -1.262262
      25A     -1.207509    26A     -1.174405    27A     -1.158664
      28A     -1.124037    29A     -1.056392    30A     -1.035549
      31A     -1.034682    32A     -1.015732    33A     -1.008195
      34A     -0.965197    35A     -0.891251    36A     -0.851777
      37A     -0.847448    38A     -0.839134    39A     -0.815638
      40A     -0.811439    41A     -0.771555    42A     -0.750770
      43A     -0.717244    44A     -0.693458    45A     -0.686392
      46A     -0.679631    47A     -0.674200    48A     -0.648388
      49A     -0.635392    50A     -0.629436    51A     -0.622416
      52A     -0.607681    53A     -0.606104    54A     -0.598026
      55A     -0.592457    56A     -0.589565    57A     -0.584957
      58A     -0.577952    59A     -0.542694    60A     -0.531188
      61A     -0.525851    62A     -0.515792    63A     -0.511616
      64A     -0.510652    65A     -0.501518    66A     -0.488741
      67A     -0.483948    68A     -0.451422    69A     -0.426627
      70A     -0.425369    71A     -0.358935    72A     -0.354160
      73A     -0.348339    74A     -0.336031    75A     -0.329140
      76A     -0.274869

  @DF-RHF Final Energy:  -912.90007046719950

   => Energetics <=

    Nuclear Repulsion Energy =           1576.0646946334472887
    One-Electron Energy =               -4370.8790792063136905
    Two-Electron Energy =                1881.9143141056667901
    Total Energy =                       -912.9000704671996118

  Dipole Moment: [D]
     X:     1.3085      Y:    -3.2304      Z:    -2.9267     Total:     4.5512

    SAPT Results
  --------------------------------------------------------------------------------------------------------
    Electrostatics               -162.47876877 [mEh]    -101.95696669 [kcal/mol]    -426.58794863 [kJ/mol]
      Elst10,r                   -162.47876877 [mEh]    -101.95696669 [kcal/mol]    -426.58794863 [kJ/mol]

    Exchange                       49.97442011 [mEh]      31.35942207 [kcal/mol]     131.20782193 [kJ/mol]
      Exch10                       49.97442011 [mEh]      31.35942207 [kcal/mol]     131.20782193 [kJ/mol]
      Exch10(S^2)                  49.66249445 [mEh]      31.16368576 [kcal/mol]     130.38886123 [kJ/mol]

    Induction                    -192.88830752 [mEh]    -121.03924035 [kcal/mol]    -506.42818163 [kJ/mol]
      Ind20,r                    -399.98642615 [mEh]    -250.99527179 [kcal/mol]   -1050.16421718 [kJ/mol]
      Exch-Ind20,r                218.85604841 [mEh]     137.33424377 [kcal/mol]     574.60647595 [kJ/mol]
      delta HF,r (2)              -11.75792978 [mEh]      -7.37821233 [kcal/mol]     -30.87044039 [kJ/mol]

    Dispersion                     -8.97017911 [mEh]      -5.62887237 [kcal/mol]     -23.55120201 [kJ/mol]
      Disp20                      -10.56548697 [mEh]      -6.62994317 [kcal/mol]     -27.73968222 [kJ/mol]
      Exch-Disp20                   1.59530786 [mEh]       1.00107080 [kcal/mol]       4.18848021 [kJ/mol]
      Disp20 (SS)                  -5.28274349 [mEh]      -3.31497158 [kcal/mol]     -13.86984111 [kJ/mol]
      Disp20 (OS)                  -5.28274349 [mEh]      -3.31497158 [kcal/mol]     -13.86984111 [kJ/mol]
      Exch-Disp20 (SS)              0.63749845 [mEh]       0.40003632 [kcal/mol]       1.67375195 [kJ/mol]
      Exch-Disp20 (OS)              0.95780941 [mEh]       0.60103448 [kcal/mol]       2.51472826 [kJ/mol]

  Total HF                       -305.39265618 [mEh]    -191.63678497 [kcal/mol]    -801.80830833 [kJ/mol]
  Total SAPT0                    -314.36283529 [mEh]    -197.26565735 [kcal/mol]    -825.35951034 [kJ/mol]

  Special recipe for scaled SAPT0 (see Manual):
    Electrostatics sSAPT0        -162.47876877 [mEh]    -101.95696669 [kcal/mol]    -426.58794863 [kJ/mol]
    Exchange sSAPT0                49.97442011 [mEh]      31.35942207 [kcal/mol]     131.20782193 [kJ/mol]
    Induction sSAPT0             -188.73850637 [mEh]    -118.43520081 [kcal/mol]    -495.53288021 [kJ/mol]
    Dispersion sSAPT0              -8.93992996 [mEh]      -5.60989074 [kcal/mol]     -23.47178287 [kJ/mol]
  Total sSAPT0                   -310.18278499 [mEh]    -194.64263618 [kcal/mol]    -814.38478978 [kJ/mol]
  --------------------------------------------------------------------------------------------------------

*** Psi4 exiting successfully. Buy a developer a beer!
